192
Lattice="12.442877769470215 0.0 0.0 0.0 12.442877769470215 0.0 0.0 0.0 12.442877769470215" Properties=species:S:1:pos:R:3:forces:R:3:momenta:R:3 energy=-30032.727035481024 stress="0.04078522002519403 -0.006292612062470673 0.00181265079510444 -0.006292612062470673 0.044815846965802215 -0.0011486504899346707 0.00181265079510444 -0.0011486504899346707 0.04406489610103654" free_energy=-30032.727035481024 pbc="T T T"
O       10.35425777       6.99089777       3.92983000       1.92400164      -0.33327873      -0.51120868       0.00000000       0.00000000       0.00000000
H       11.06626777       6.66681777       3.29629000      -0.72794179       1.16475935       1.77260994       0.00000000       0.00000000       0.00000000
H       10.71632777       7.70281777       4.56239000      -0.19961459      -1.32849753      -1.28355421       0.00000000       0.00000000       0.00000000
O        0.54490800       2.89013000       5.61952000       1.56767679      -0.48939605      -1.15765873       0.00000000       0.00000000       0.00000000
H        1.36839000       2.49047000       5.14169000      -2.16471926       1.41608419       0.97724188       0.00000000       0.00000000       0.00000000
H        0.08662170       3.52184000       5.00127000       0.85444705      -1.09483803      -0.24368340       0.00000000       0.00000000       0.00000000
O        8.14752777       7.07759777       2.74398000       1.19016078       0.78295576       0.77892924       0.00000000       0.00000000       0.00000000
H        9.13014777       6.84758777       2.97757000      -2.04223013       0.89739379       0.22275949       0.00000000       0.00000000       0.00000000
H        7.96415777       7.88177777       3.34444000       0.29233756      -1.66412330      -1.17277809       0.00000000       0.00000000       0.00000000
O        2.51529000       5.05648000       1.73545000       1.82987548       1.22136687       1.22960685       0.00000000       0.00000000       0.00000000
H        2.68125000       5.21363000       2.74696000      -0.74368795      -0.36581415      -2.24119947       0.00000000       0.00000000       0.00000000
H        3.31744000       5.46335000       1.26621000      -1.39709727      -0.56660855       0.72819870       0.00000000       0.00000000       0.00000000
O        4.56019000       6.39492777       0.09454390      -0.13504448       1.08551274      -0.87337534       0.00000000       0.00000000       0.00000000
H        5.05546000       6.13594000      11.69155377      -2.03699119       0.55876264       1.35824204       0.00000000       0.00000000       0.00000000
H        3.92220000       7.19481777      12.33401377       1.74207002      -1.81290909      -0.15117210       0.00000000       0.00000000       0.00000000
O        5.43314000       5.32340000       4.54840000       1.01436105      -0.41902856      -0.28887404       0.00000000       0.00000000       0.00000000
H        6.11691000       5.05186000       3.87385000      -0.97994484       1.01132601       0.94508343       0.00000000       0.00000000       0.00000000
H        5.75824000       6.05749000       5.16280000       0.10250314      -0.53646036      -1.15713372       0.00000000       0.00000000       0.00000000
O        7.84426777       8.50387777       0.54116700       1.31443200       1.18018984      -0.37317283       0.00000000       0.00000000       0.00000000
H        7.97996777       7.79442777       1.22868000       0.34127161       0.84496365      -0.04093966       0.00000000       0.00000000       0.00000000
H        8.67071777       9.10291777       0.48809900      -1.68203414      -1.74255711       0.21020210       0.00000000       0.00000000       0.00000000
O        4.94921000       2.69119000      11.28836777       1.02889387      -1.07620885       0.33196570       0.00000000       0.00000000       0.00000000
H        5.43697000       3.02083000      10.46716777      -0.48287938      -1.35747034       2.43488558       0.00000000       0.00000000       0.00000000
H        5.44986000       1.96873000      11.81419577      -0.93115854       2.36514406      -1.95200331       0.00000000       0.00000000       0.00000000
O       11.54885577       3.79381000       3.43296000      -0.32518550      -0.68647918      -1.50887367       0.00000000       0.00000000       0.00000000
H       11.73131977       4.23518000       2.51188000      -0.63604080      -1.00134084       1.93793876       0.00000000       0.00000000       0.00000000
H       11.27812777       2.82315000       3.25524000       0.91746143       2.33347242      -0.16455751       0.00000000       0.00000000       0.00000000
O        5.02224000       5.56109000       9.98344777       0.61468357      -1.22244393      -0.08773585       0.00000000       0.00000000       0.00000000
H        5.60268000       4.72173000      10.04266777      -1.04833570       1.94220573      -0.72493013       0.00000000       0.00000000       0.00000000
H        4.36726000       5.44073000       9.23936777       1.02841251      -0.01072935       0.65987823       0.00000000       0.00000000       0.00000000
O        0.79183400       7.14589777      10.11901777      -0.56063266      -1.33391277       0.05934617       0.00000000       0.00000000       0.00000000
H        0.77446300       6.14813000      10.32491777       0.13026916       1.91171414      -1.26670501       0.00000000       0.00000000       0.00000000
H        0.35806700       7.34081777       9.22981777       0.56386116      -0.77983888       1.52667554       0.00000000       0.00000000       0.00000000
O        2.84538000       8.41568777      11.61683277      -1.83604959      -0.96909517       1.09574671       0.00000000       0.00000000       0.00000000
H        2.46036000       8.82439777       0.06717510       0.17656571      -1.08960147      -2.55748358       0.00000000       0.00000000       0.00000000
H        2.12799000       7.86673777      11.10378777       1.39217230       1.64726949       1.26296936       0.00000000       0.00000000       0.00000000
O        9.05272777      11.14957777       5.53971000       0.84746477       1.53329517       0.51603659       0.00000000       0.00000000       0.00000000
H        9.56026777      11.41141777       6.41611777      -0.66680668      -0.98169604      -1.59335218       0.00000000       0.00000000       0.00000000
H        9.16717777      11.87191377       4.82497000      -0.30224465      -0.97976534       0.96317552       0.00000000       0.00000000       0.00000000
O        3.38368000       0.40711100      10.07921777      -1.37142795       0.48589231       1.29738932       0.00000000       0.00000000       0.00000000
H        2.84966000       0.76010800      10.88239777       1.16257581      -0.61843155      -2.72589628       0.00000000       0.00000000       0.00000000
H        2.93436000       0.58736500       9.20997777       0.18306294       0.00869573       1.53994307       0.00000000       0.00000000       0.00000000
O       11.81977677       7.54809777       0.14701200       0.10934428       0.70560588      -0.24694727       0.00000000       0.00000000       0.00000000
H       12.21096977       7.55818777      11.66961177      -0.67056412       0.18774353       1.14476108       0.00000000       0.00000000       0.00000000
H       11.27951777       8.41058777       0.26132100       0.62092094      -1.50921916      -1.07043058       0.00000000       0.00000000       0.00000000
O        1.92308000       6.78842777       6.81754777       0.88244471       1.47810688      -0.05308597       0.00000000       0.00000000       0.00000000
H        1.01399000       7.06286777       7.16154777       1.04684569      -0.38777193      -0.40965005       0.00000000       0.00000000       0.00000000
H        2.57305000       7.57502777       6.75794777      -1.37542599      -1.49846218      -0.02073735       0.00000000       0.00000000       0.00000000
O       11.70464477       2.99798000       9.93463777      -0.84780337       1.51091955       2.12235555       0.00000000       0.00000000       0.00000000
H        0.04178590       3.62300000       9.69880777      -0.65217852      -1.11676941       1.02248229       0.00000000       0.00000000       0.00000000
H       11.28925777       3.28746000      10.87193777       1.16841390      -0.62558358      -3.30081356       0.00000000       0.00000000       0.00000000
O        6.90013777       7.56300777      10.37423777      -0.00615904      -0.32716848       1.31537536       0.00000000       0.00000000       0.00000000
H        6.17115000       6.88356777      10.26366777       0.62454936       0.79210966       0.11814589       0.00000000       0.00000000       0.00000000
H        7.06245777       7.77396777      11.35020777      -0.55843829      -0.26041089      -1.54620724       0.00000000       0.00000000       0.00000000
O        9.69825777       4.20965000      11.93065977       0.40544605       0.44463817       1.96903227       0.00000000       0.00000000       0.00000000
H        8.87017777       3.67111000      12.22120677       1.71994177       0.75352710       0.07073963       0.00000000       0.00000000       0.00000000
H       10.24843777       4.53261000       0.29979400      -1.83073091      -1.30856711      -2.11890001       0.00000000       0.00000000       0.00000000
O       10.50447777       9.68063777      12.04649277       0.12601655       1.18138620      -1.02477604       0.00000000       0.00000000       0.00000000
H       11.20588777      10.41880777      11.93683777      -1.19527830      -0.98803374      -0.12499723       0.00000000       0.00000000       0.00000000
H       10.12576777       9.48198777      11.13377777       0.95343782       0.33308521       1.29498443       0.00000000       0.00000000       0.00000000
O        7.95081777       2.30257000       0.23042200      -0.17418441      -0.82839400      -1.20269917       0.00000000       0.00000000       0.00000000
H        7.77571777       1.75474000      11.81600677      -0.33666928       1.24637539       2.40028423       0.00000000       0.00000000       0.00000000
H        7.27655777       2.14828000       0.94090100       0.63625168      -0.18276301      -1.19983332       0.00000000       0.00000000       0.00000000
O        4.47155000      10.28138777      10.88202777      -1.57186786       1.25475396      -0.42265107       0.00000000       0.00000000       0.00000000
H        3.94576000       9.42044777      10.99404777       0.32801575       1.40143341       0.04336370       0.00000000       0.00000000       0.00000000
H        3.78978000      11.04515777      10.76552777       1.70965534      -1.91965532      -0.07428490       0.00000000       0.00000000       0.00000000
O        8.80668777       0.65324900       3.66624000       0.97216200      -0.65320360      -0.66795179       0.00000000       0.00000000       0.00000000
H        8.37128777       1.41476000       4.16963000      -0.50833728      -0.69888649      -1.44316275       0.00000000       0.00000000       0.00000000
H        8.52591777       0.39783300       2.73262000      -0.51301638       0.65272947       1.51009666       0.00000000       0.00000000       0.00000000
O        0.91174200      12.08095577       3.19350000      -0.28591116       0.17014952      -1.32084141       0.00000000       0.00000000       0.00000000
H        1.15810000      12.04589277       2.21397000      -0.60200976       0.57348333       1.78527892       0.00000000       0.00000000       0.00000000
H        0.11581900       0.23368300       3.23800000       0.63633223      -0.52016517      -0.52926231       0.00000000       0.00000000       0.00000000
O        2.70932000       5.45675000       4.46695000      -0.02660381       0.29700397       0.92197940       0.00000000       0.00000000       0.00000000
H        3.67794000       5.23823000       4.48477000      -0.96790286       0.85455255       0.42273758       0.00000000       0.00000000       0.00000000
H        2.40944000       5.98091000       5.28332000       0.90496935      -1.01561288      -1.27921569       0.00000000       0.00000000       0.00000000
O        6.71816777       5.07081000       1.69996000      -1.03543453       1.52269732      -1.03672291       0.00000000       0.00000000       0.00000000
H        6.01744000       5.59355000       1.16796000       1.44025665      -1.11393948       1.35501982       0.00000000       0.00000000       0.00000000
H        7.36739777       5.76213000       2.00955000      -0.91563884      -0.68330313      -0.10486815       0.00000000       0.00000000       0.00000000
O       12.02606077       0.32101700       9.09062777       1.27666264       2.03748720      -1.07927631       0.00000000       0.00000000       0.00000000
H        0.51123700       0.43222500       8.58063777      -2.69005033       0.04847016       1.54438325       0.00000000       0.00000000       0.00000000
H       11.61018577       1.24261000       9.35991777       1.72026220      -1.74568727      -0.77077391       0.00000000       0.00000000       0.00000000
O       12.39567647      11.58826777      11.42706777       0.20296086       1.02311641      -0.48938843       0.00000000       0.00000000       0.00000000
H       12.08073877      11.93637777      10.48288777       1.63375425      -0.23464640       2.43458352       0.00000000       0.00000000       0.00000000
H        0.65740500      12.17495077      11.90518477      -1.67075607      -0.97356933      -1.45644027       0.00000000       0.00000000       0.00000000
O        3.36992000       9.46502777       3.18106000      -1.16598358       0.79147700      -1.51584221       0.00000000       0.00000000       0.00000000
H        2.72578000       9.04289777       2.48781000       1.65481786       1.77236407       1.72869609       0.00000000       0.00000000       0.00000000
H        3.46293000      10.45438777       2.97337000      -0.34486503      -2.63067022       0.22223774       0.00000000       0.00000000       0.00000000
O       10.95490777       8.87084777       5.76396000      -0.74868252       1.56629870      -1.20709590       0.00000000       0.00000000       0.00000000
H       11.75860377       9.41522777       5.48848000      -1.06564238      -0.71431166       0.18638385       0.00000000       0.00000000       0.00000000
H       10.11785777       9.37546777       5.47342000       2.25805454      -0.61008795       1.00844135       0.00000000       0.00000000       0.00000000
O        0.69421600       7.39402777       3.27313000       1.20125005      -0.79288072       1.44165147       0.00000000       0.00000000       0.00000000
H        0.87546000       8.24790777       3.75228000      -0.47413365      -1.02297973      -0.44869119       0.00000000       0.00000000       0.00000000
H        1.17020000       6.67030777       3.79375000      -0.87146800       1.68532804      -1.30913827       0.00000000       0.00000000       0.00000000
O        5.96222000       2.36411000       2.22848000       1.06307932       0.85728684       0.82774976       0.00000000       0.00000000       0.00000000
H        6.28025777       3.26042000       1.89126000      -0.76623557      -0.85704356       0.96855282       0.00000000       0.00000000       0.00000000
H        6.36272777       2.25892000       3.14606000      -0.44241607       0.57619542      -1.83735791       0.00000000       0.00000000       0.00000000
O        4.13434000       0.32708600       1.61891000       0.38186967      -0.00484772      -0.00515705       0.00000000       0.00000000       0.00000000
H        4.66739000      11.92040577       1.64092000      -0.21385556       2.04108062       0.20543180       0.00000000       0.00000000       0.00000000
H        4.58175000       1.18726000       1.93513000      -0.11748280      -2.21737254      -0.55500804       0.00000000       0.00000000       0.00000000
O        1.50234000       4.30329000       9.78203777       2.35011432       0.28760618       1.06401730       0.00000000       0.00000000       0.00000000
H        2.30358000       4.59154000       9.18797777      -1.92612102      -1.21935674       1.46361939       0.00000000       0.00000000       0.00000000
H        1.86058000       3.92409000      10.70661777      -0.53882629       0.74694035      -2.18377144       0.00000000       0.00000000       0.00000000
O        7.84365777      11.90868377       1.10870000      -0.92873402      -1.07347933      -2.02698456       0.00000000       0.00000000       0.00000000
H        7.48452777      10.93416777       1.00932000       0.80539752       3.47119679       0.08298015       0.00000000       0.00000000       0.00000000
H        7.63014777       0.00208441       0.24099500       0.36241868      -2.20820211       2.40209037       0.00000000       0.00000000       0.00000000
O        6.96940777       3.80055000       9.77643777       1.60427240      -0.45654620      -0.96861867       0.00000000       0.00000000       0.00000000
H        7.77227777       4.42687000       9.85474777      -1.75112802      -2.12822791      -0.71240812       0.00000000       0.00000000       0.00000000
H        7.02876777       3.05165000       9.08503777       0.50505762       2.18728825       1.31887046       0.00000000       0.00000000       0.00000000
O        7.54786777       9.20603777       4.33267000      -1.17228441       2.48319728       0.10300715       0.00000000       0.00000000       0.00000000
H        6.82504777       9.83179777       3.97984000       1.77895439      -1.44047678       0.71923755       0.00000000       0.00000000       0.00000000
H        8.15933777       9.80350777       4.86853000      -0.85447233      -0.44014048      -0.86606398       0.00000000       0.00000000       0.00000000
O       11.41802777       4.24846000       7.41019777       0.24707048      -1.15798220       1.45614747       0.00000000       0.00000000       0.00000000
H       11.26885777       3.76057000       8.34077777       0.73220183       1.02701307      -2.75101884       0.00000000       0.00000000       0.00000000
H       12.14451777       3.82281000       6.84116777      -1.05995507       0.22735151       1.72489833       0.00000000       0.00000000       0.00000000
O       11.19567777       1.26426000       2.51261000      -0.77338660      -0.76748055      -1.16746111       0.00000000       0.00000000       0.00000000
H       11.16481777       1.07276000       1.51037000      -0.56196521       0.47316870       2.77635460       0.00000000       0.00000000       0.00000000
H       10.30533777       1.11046000       3.00278000       1.03912333      -0.23227922      -1.40557131       0.00000000       0.00000000       0.00000000
O        1.61116000       0.60854900       0.59922300       1.38776512       1.15663871      -0.01940462       0.00000000       0.00000000       0.00000000
H        2.64723000       0.50785400       0.80157800      -2.27015271       0.74553642      -0.11706824       0.00000000       0.00000000       0.00000000
H        1.36252000       1.59424000       0.48925200       1.39108099      -2.13800096       0.27781163       0.00000000       0.00000000       0.00000000
O       10.32252777      11.22069777       7.84303777       0.69044874      -0.14454024       1.63326565       0.00000000       0.00000000       0.00000000
H       11.09237777      11.81539277       8.15065777      -1.09023271      -0.76904099      -0.14195037       0.00000000       0.00000000       0.00000000
H       10.19409777      10.49967777       8.56312777      -0.04436802       1.20231293      -1.59737804       0.00000000       0.00000000       0.00000000
O        2.91143000       1.16543000       4.41437000       0.16209014      -0.74402452       0.36688980       0.00000000       0.00000000       0.00000000
H        2.20356000       0.72689700       3.85973000       1.30142546       0.25033422       0.78272482       0.00000000       0.00000000       0.00000000
H        3.51361000       0.42730900       4.78590000      -1.78534456       0.69788188      -1.07249795       0.00000000       0.00000000       0.00000000
O       11.95097177       7.22656777       7.68703777      -1.19406024      -1.28240394      -0.25949732       0.00000000       0.00000000       0.00000000
H       11.47508577       6.32805777       7.59884777       1.06820793       1.79301567      -0.00727975       0.00000000       0.00000000       0.00000000
H       11.58754677       7.88017777       7.04180777      -0.29800224      -0.61642707       0.33756215       0.00000000       0.00000000       0.00000000
O        3.93036000       8.46084777       5.81409000       1.22854099       0.25467654       1.28004303       0.00000000       0.00000000       0.00000000
H        4.87003000       8.26099777       6.24183777      -2.39200130       0.06763651      -2.03444380       0.00000000       0.00000000       0.00000000
H        3.87294000       8.44326777       4.83719000       0.88279080      -0.26948186       0.62302238       0.00000000       0.00000000       0.00000000
O        6.21593000       1.74278000       7.61614777      -2.09067112       0.53211305      -1.21581747       0.00000000       0.00000000       0.00000000
H        5.48008000       2.28561000       7.07893777       2.29626073      -1.59737307       1.23706883       0.00000000       0.00000000       0.00000000
H        6.12764000       0.77596400       7.34802777       0.23199533       1.49449974       0.03802673       0.00000000       0.00000000       0.00000000
O        8.03794777       5.83826000       7.48000777       1.49946443      -0.34663844      -0.09128250       0.00000000       0.00000000       0.00000000
H        8.28987777       5.99698000       8.42961777       0.19768014      -0.31990958      -1.47214367       0.00000000       0.00000000       0.00000000
H        8.82983777       5.44390000       6.98792777      -1.71576590       0.79491277       0.94879768       0.00000000       0.00000000       0.00000000
O        0.91700100       9.77484777       4.66813000       1.05110177       0.89950339      -0.26749662       0.00000000       0.00000000       0.00000000
H        1.89272000       9.53819777       4.83275000      -2.30462713       1.23398848      -0.72881689       0.00000000       0.00000000       0.00000000
H        0.79917700      10.62957777       4.07715000       1.13850970      -1.80498361       1.16874538       0.00000000       0.00000000       0.00000000
O        1.98679000       0.66740100       7.54631777      -0.43828484       1.25081742      -0.54817355       0.00000000       0.00000000       0.00000000
H        1.72142000       1.51658000       7.07480777       0.76725739      -1.88968508       0.58055617       0.00000000       0.00000000       0.00000000
H        2.45320000       0.06646460       6.93701777      -0.44427754       0.67030247      -0.00259269       0.00000000       0.00000000       0.00000000
O        6.22952777      10.03742777       8.66308777       0.11443049      -1.57195874       1.30889100       0.00000000       0.00000000       0.00000000
H        6.56078777       9.07873777       8.75417777      -1.20504126       2.28266884       0.05505053       0.00000000       0.00000000       0.00000000
H        5.64213000      10.23866777       9.47587777       0.81312197      -0.76264047      -1.16812863       0.00000000       0.00000000       0.00000000
O        5.51432000      10.14798777       1.10750000       0.93472644       0.16909965      -1.99961646       0.00000000       0.00000000       0.00000000
H        6.25014777       9.42654777       1.01437000      -1.87149983       1.80821896      -0.42559144       0.00000000       0.00000000       0.00000000
H        5.33997000      10.63262777       0.19382900       0.74743063      -2.33682416       2.12192118       0.00000000       0.00000000       0.00000000
O        1.36294000       9.34939777       1.21493000      -1.24992215       1.17419154      -0.42842448       0.00000000       0.00000000       0.00000000
H        0.94801200      10.22366777       0.86725600       0.63246751      -2.96600868       0.75295386       0.00000000       0.00000000       0.00000000
H        0.71892400       8.57180777       1.29006000       0.64670805       1.63766194      -0.49915552       0.00000000       0.00000000       0.00000000
O        6.38559777       7.39710777       5.94440000       1.64353291       0.65556693       0.29533738       0.00000000       0.00000000       0.00000000
H        6.76866777       8.21874777       5.45088000      -0.26412628      -2.18698345       0.79466518       0.00000000       0.00000000       0.00000000
H        7.12250777       6.87456777       6.43990777      -1.16474769       1.19670086      -0.50164412       0.00000000       0.00000000       0.00000000
O        4.11799000      11.47680977       5.33075000       0.69771845      -0.67141480       0.86254747       0.00000000       0.00000000       0.00000000
H        3.89388000      10.50132777       5.35523000       0.89977661       1.61245500       0.39369944       0.00000000       0.00000000       0.00000000
H        4.97984000      11.69804977       5.82636000      -1.10266678      -1.28171551      -0.91128478       0.00000000       0.00000000       0.00000000
O        8.55356777       0.71903600       8.83725777      -0.93137505       0.68154705      -1.68484724       0.00000000       0.00000000       0.00000000
H        9.13819777      12.42430627       8.46007777      -1.25633339       1.35918324      -0.01199460       0.00000000       0.00000000       0.00000000
H        7.91221777       1.22070000       8.16687777       2.23224932      -2.03094445       1.59743810       0.00000000       0.00000000       0.00000000
O        3.48631000       4.83648000       7.92597777      -0.65842046      -0.31013181      -3.43114932       0.00000000       0.00000000       0.00000000
H        2.79381000       5.43191000       7.40903777       1.63939084      -0.92565585       1.18271419       0.00000000       0.00000000       0.00000000
H        3.90378000       4.23127000       7.19554777      -1.23601921       1.50346654       2.03726684       0.00000000       0.00000000       0.00000000
O        6.95670777       0.47344900      10.93378777      -1.97158678       0.05412504      -2.01562936       0.00000000       0.00000000       0.00000000
H        7.59538777       0.43452700      10.15108777      -0.54941768       0.06004430       0.47976897       0.00000000       0.00000000       0.00000000
H        6.02680000       0.57977900      10.49529777       2.55719023      -0.41841028       1.20765109       0.00000000       0.00000000       0.00000000
O        9.55388777       4.38816000       5.48583000       1.33609503       0.22936478      -0.23334281       0.00000000       0.00000000       0.00000000
H       10.19522777       4.25129000       6.25971777      -0.62832713      -0.05922761      -1.14272635       0.00000000       0.00000000       0.00000000
H       10.13603777       4.70532000       4.72670000      -1.02716351      -0.64693284       1.33967977       0.00000000       0.00000000       0.00000000
O        4.77282000       3.01947000       5.63408000      -0.27772901      -1.13086024       0.14448672       0.00000000       0.00000000       0.00000000
H        4.33840000       2.31068000       5.08310000       0.22508328       1.76337859       0.28044795       0.00000000       0.00000000       0.00000000
H        5.07407000       3.83884000       5.15546000      -0.37567211      -0.48370876      -0.07290905       0.00000000       0.00000000       0.00000000
O        9.27662777       6.28749777       9.98424777      -0.91700284      -0.46323589       0.85996553       0.00000000       0.00000000       0.00000000
H        9.51947777       5.66232000      10.72649777      -0.33353485       0.63848745      -0.78048157       0.00000000       0.00000000       0.00000000
H        8.40083777       6.71492777      10.23630777       1.07250228      -0.31832150      -0.00090913       0.00000000       0.00000000       0.00000000
O        2.36102000       3.23539000      12.17343177      -0.75120720       1.52711024       0.79338839       0.00000000       0.00000000       0.00000000
H        2.21884000       3.98818000       0.41803000       0.89422857      -1.86303575      -1.14505911       0.00000000       0.00000000       0.00000000
H        3.31638000       3.12881000      11.99127477      -0.11122051       0.19704331       0.17813159       0.00000000       0.00000000       0.00000000
O       12.03823677       5.04388000       1.12723000       1.36386872       1.96305671      -0.25229751       0.00000000       0.00000000       0.00000000
H       11.76068377       5.98612000       0.76346700       1.05488549      -1.61863667       0.92925686       0.00000000       0.00000000       0.00000000
H        0.57404000       5.14021000       1.40916000      -1.91575888       0.13907986      -0.80988966       0.00000000       0.00000000       0.00000000
O        6.51952777      11.73444377       6.54096777       0.91320923      -0.68958953       0.24142756       0.00000000       0.00000000       0.00000000
H        6.37509777      11.12993777       7.33083777       0.62622425       0.17690380      -0.78195947       0.00000000       0.00000000       0.00000000
H        7.45371777      11.57616677       6.15227000      -1.68259057       0.10632281       0.86435275       0.00000000       0.00000000       0.00000000
O        7.45808777       2.60107000       4.61178000       0.76793386       0.62166208       0.92978926       0.00000000       0.00000000       0.00000000
H        6.77635777       2.46120000       5.30790000       1.02462020       0.46119239      -0.24005122       0.00000000       0.00000000       0.00000000
H        8.22950777       3.18713000       4.92536000      -1.42449728      -0.38641676       0.01841365       0.00000000       0.00000000       0.00000000